<?xml version="1.0" encoding="UTF-8"?>

<!-- generated on 2025-12-16T16:10:29.978037+00:00 by Eclipse SUMO sumo 1.25.0
<sumoConfiguration xmlns:xsi="http://www.w3.org/2001/XMLSchema-instance" xsi:noNamespaceSchemaLocation="http://sumo.dlr.de/xsd/sumoConfiguration.xsd">

    <input>
        <net-file value="scenarios\../vci.net.xml"/>
        <route-files value="scenarios\routes_toll_1_5.xml"/>
    </input>

    <output>
        <tripinfo-output value="scenarios\tripinfo_toll_1_5.xml"/>
    </output>

    <time>
        <begin value="32400"/>
        <end value="39600"/>
        <step-length value="1"/>
    </time>

    <report>
        <xml-validation value="never"/>
        <no-step-log value="true"/>
    </report>

</sumoConfiguration>
-->

<tripinfos xmlns:xsi="http://www.w3.org/2001/XMLSchema-instance" xsi:noNamespaceSchemaLocation="http://sumo.dlr.de/xsd/tripinfo_file.xsd">
    <tripinfo id="2" depart="32403.00" departLane="1135405_0" departPos="5.10" departSpeed="0.00" departDelay="0.12" arrival="32425.00" arrivalLane="1135405_0" arrivalPos="439.53" arrivalSpeed="28.56" duration="22.00" routeLength="434.43" waitingTime="0.00" waitingCount="0" stopTime="0.00" timeLoss="7.13" rerouteNo="0" devices="tripinfo_2 emissions_2" vType="ICE" speedFactor="1.06" vaporized="">
        <emissions CO_abs="3285.52" CO2_abs="195912.66" HC_abs="19.80" PMx_abs="4.39" NOx_abs="82.13" fuel_abs="62486.57" electricity_abs="0.00"/>
    </tripinfo>
    <tripinfo id="6" depart="32409.00" departLane="1398689_0" departPos="5.10" departSpeed="0.00" departDelay="0.36" arrival="32443.00" arrivalLane="1398689_0" arrivalPos="798.31" arrivalSpeed="30.72" duration="34.00" routeLength="793.21" waitingTime="0.00" waitingCount="0" stopTime="0.00" timeLoss="7.87" rerouteNo="0" devices="tripinfo_6 emissions_6" vType="ICE" speedFactor="0.94" vaporized="">
        <emissions CO_abs="4844.99" CO2_abs="293109.34" HC_abs="29.40" PMx_abs="6.67" NOx_abs="118.35" fuel_abs="93487.79" electricity_abs="0.00"/>
    </tripinfo>
    <tripinfo id="23" depart="32434.00" departLane="1302641_0" departPos="5.10" departSpeed="0.00" departDelay="0.88" arrival="32456.00" arrivalLane="1302641_0" arrivalPos="440.91" arrivalSpeed="29.83" duration="22.00" routeLength="435.81" waitingTime="0.00" waitingCount="0" stopTime="0.00" timeLoss="6.91" rerouteNo="0" devices="tripinfo_23 emissions_23" vType="ICE" speedFactor="1.09" vaporized="">
        <emissions CO_abs="3622.16" CO2_abs="212986.02" HC_abs="21.78" PMx_abs="4.84" NOx_abs="89.02" fuel_abs="67932.14" electricity_abs="0.00"/>
    </tripinfo>
    <tripinfo id="32" depart="32447.00" departLane="1051139_0" departPos="5.10" departSpeed="0.00" departDelay="0.92" arrival="32460.00" arrivalLane="1051139_0" arrivalPos="187.72" arrivalSpeed="26.98" duration="13.00" routeLength="182.62" waitingTime="0.00" waitingCount="0" stopTime="0.00" timeLoss="6.28" rerouteNo="0" devices="tripinfo_32 emissions_32" vType="ICE" speedFactor="0.88" vaporized="">
        <emissions CO_abs="2409.77" CO2_abs="140341.00" HC_abs="14.40" PMx_abs="3.13" NOx_abs="60.70" fuel_abs="44761.82" electricity_abs="0.00"/>
    </tripinfo>
    <tripinfo id="34" depart="32449.00" departLane="1135405_0" departPos="5.10" departSpeed="0.00" departDelay="0.04" arrival="32472.00" arrivalLane="1135405_0" arrivalPos="439.53" arrivalSpeed="25.21" duration="23.00" routeLength="434.43" waitingTime="0.00" waitingCount="0" stopTime="0.00" timeLoss="6.34" rerouteNo="0" devices="tripinfo_34 emissions_34" vType="EV" speedFactor="0.94" vaporized="">
        <emissions CO_abs="0.00" CO2_abs="0.00" HC_abs="0.00" PMx_abs="0.00" NOx_abs="0.00" fuel_abs="0.00" electricity_abs="228.82"/>
    </tripinfo>
    <tripinfo id="41" depart="32460.00" departLane="1051139_0" departPos="5.10" departSpeed="0.00" departDelay="0.96" arrival="32473.00" arrivalLane="1051139_0" arrivalPos="187.72" arrivalSpeed="26.08" duration="13.00" routeLength="182.62" waitingTime="0.00" waitingCount="0" stopTime="0.00" timeLoss="7.33" rerouteNo="0" devices="tripinfo_41 emissions_41" vType="ICE" speedFactor="1.02" vaporized="">
        <emissions CO_abs="2238.26" CO2_abs="132544.50" HC_abs="13.43" PMx_abs="2.92" NOx_abs="57.12" fuel_abs="42275.14" electricity_abs="0.00"/>
    </tripinfo>
    <tripinfo id="11" depart="32416.00" departLane="1181568_0" departPos="5.10" departSpeed="0.00" departDelay="0.16" arrival="32490.00" arrivalLane="1181568_0" arrivalPos="1818.38" arrivalSpeed="26.45" duration="74.00" routeLength="1813.28" waitingTime="0.00" waitingCount="0" stopTime="0.00" timeLoss="6.96" rerouteNo="0" devices="tripinfo_11 emissions_11" vType="EV" speedFactor="1.08" vaporized="">
        <emissions CO_abs="0.00" CO2_abs="0.00" HC_abs="0.00" PMx_abs="0.00" NOx_abs="0.00" fuel_abs="0.00" electricity_abs="475.57"/>
    </tripinfo>
    <tripinfo id="54" depart="32478.00" departLane="1051139_0" departPos="5.10" departSpeed="0.00" departDelay="0.24" arrival="32491.00" arrivalLane="1051139_0" arrivalPos="187.72" arrivalSpeed="26.09" duration="13.00" routeLength="182.62" waitingTime="0.00" waitingCount="0" stopTime="0.00" timeLoss="7.14" rerouteNo="0" devices="tripinfo_54 emissions_54" vType="EV" speedFactor="0.95" vaporized="">
        <emissions CO_abs="0.00" CO2_abs="0.00" HC_abs="0.00" PMx_abs="0.00" NOx_abs="0.00" fuel_abs="0.00" electricity_abs="200.55"/>
    </tripinfo>
    <tripinfo id="12" depart="32418.00" departLane="1181571_0" departPos="5.10" departSpeed="0.00" departDelay="0.72" arrival="32500.00" arrivalLane="1181539_0" arrivalPos="398.14" arrivalSpeed="28.36" duration="82.00" routeLength="2062.81" waitingTime="0.00" waitingCount="0" stopTime="0.00" timeLoss="7.45" rerouteNo="0" devices="tripinfo_12 emissions_12" vType="ICE" speedFactor="1.03" vaporized="">
        <emissions CO_abs="7016.92" CO2_abs="501461.62" HC_abs="44.29" PMx_abs="10.84" NOx_abs="195.47" fuel_abs="159942.21" electricity_abs="0.00"/>
    </tripinfo>
    <tripinfo id="68" depart="32499.00" departLane="1051139_0" departPos="5.10" departSpeed="0.00" departDelay="1.08" arrival="32513.00" arrivalLane="1051139_0" arrivalPos="187.72" arrivalSpeed="25.85" duration="14.00" routeLength="182.62" waitingTime="0.00" waitingCount="0" stopTime="0.00" timeLoss="8.22" rerouteNo="0" devices="tripinfo_68 emissions_68" vType="ICE" speedFactor="1.02" vaporized="">
        <emissions CO_abs="2244.97" CO2_abs="132036.58" HC_abs="13.43" PMx_abs="2.87" NOx_abs="56.73" fuel_abs="42113.19" electricity_abs="0.00"/>
    </tripinfo>
    <tripinfo id="28" depart="32441.00" departLane="1181568_0" departPos="5.10" departSpeed="0.00" departDelay="0.68" arrival="32514.00" arrivalLane="1181568_0" arrivalPos="1818.38" arrivalSpeed="27.84" duration="73.00" routeLength="1813.28" waitingTime="0.00" waitingCount="0" stopTime="0.00" timeLoss="8.20" rerouteNo="0" devices="tripinfo_28 emissions_28" vType="EV" speedFactor="1.12" vaporized="">
        <emissions CO_abs="0.00" CO2_abs="0.00" HC_abs="0.00" PMx_abs="0.00" NOx_abs="0.00" fuel_abs="0.00" electricity_abs="507.88"/>
    </tripinfo>
    <tripinfo id="71" depart="32505.00" departLane="1051139_0" departPos="5.10" departSpeed="0.00" departDelay="2.76" arrival="32519.00" arrivalLane="1051139_0" arrivalPos="187.72" arrivalSpeed="26.08" duration="14.00" routeLength="182.62" waitingTime="0.00" waitingCount="0" stopTime="0.00" timeLoss="9.17" rerouteNo="0" devices="tripinfo_71 emissions_71" vType="ICE" speedFactor="1.18" vaporized="">
        <emissions CO_abs="2406.20" CO2_abs="134611.67" HC_abs="14.24" PMx_abs="2.97" NOx_abs="58.12" fuel_abs="42934.54" electricity_abs="0.00"/>
    </tripinfo>
    <tripinfo id="82" depart="32519.00" departLane="1051139_0" departPos="5.10" departSpeed="0.00" departDelay="0.92" arrival="32532.00" arrivalLane="1051139_0" arrivalPos="187.72" arrivalSpeed="27.09" duration="13.00" routeLength="182.62" waitingTime="0.00" waitingCount="0" stopTime="0.00" timeLoss="7.60" rerouteNo="0" devices="tripinfo_82 emissions_82" vType="EV" speedFactor="1.09" vaporized="">
        <emissions CO_abs="0.00" CO2_abs="0.00" HC_abs="0.00" PMx_abs="0.00" NOx_abs="0.00" fuel_abs="0.00" electricity_abs="217.10"/>
    </tripinfo>
    <tripinfo id="88" depart="32527.00" departLane="1135405_0" departPos="5.10" departSpeed="0.00" departDelay="0.28" arrival="32550.00" arrivalLane="1135405_0" arrivalPos="439.53" arrivalSpeed="26.64" duration="23.00" routeLength="434.43" waitingTime="0.00" waitingCount="0" stopTime="0.00" timeLoss="6.56" rerouteNo="0" devices="tripinfo_88 emissions_88" vType="EV" speedFactor="1.00" vaporized="">
        <emissions CO_abs="0.00" CO2_abs="0.00" HC_abs="0.00" PMx_abs="0.00" NOx_abs="0.00" fuel_abs="0.00" electricity_abs="254.84"/>
    </tripinfo>
    <tripinfo id="63" depart="32491.00" departLane="1181543_0" departPos="5.10" departSpeed="0.00" departDelay="0.28" arrival="32572.00" arrivalLane="1181543_0" arrivalPos="1837.57" arrivalSpeed="24.23" duration="81.00" routeLength="1832.47" waitingTime="0.00" waitingCount="0" stopTime="0.00" timeLoss="7.88" rerouteNo="0" devices="tripinfo_63 emissions_63" vType="ICE" speedFactor="1.01" vaporized="">
        <emissions CO_abs="4267.23" CO2_abs="406881.31" HC_abs="29.05" PMx_abs="7.79" NOx_abs="151.77" fuel_abs="129775.85" electricity_abs="0.00"/>
    </tripinfo>
    <tripinfo id="106" depart="32553.00" departLane="1302641_0" departPos="5.10" departSpeed="0.00" departDelay="0.36" arrival="32578.00" arrivalLane="1302641_0" arrivalPos="440.91" arrivalSpeed="24.07" duration="25.00" routeLength="435.81" waitingTime="0.00" waitingCount="0" stopTime="0.00" timeLoss="6.67" rerouteNo="0" devices="tripinfo_106 emissions_106" vType="EV" speedFactor="0.90" vaporized="">
        <emissions CO_abs="0.00" CO2_abs="0.00" HC_abs="0.00" PMx_abs="0.00" NOx_abs="0.00" fuel_abs="0.00" electricity_abs="213.99"/>
    </tripinfo>
    <tripinfo id="121" depart="32575.00" departLane="1135405_0" departPos="5.10" departSpeed="0.00" departDelay="0.76" arrival="32596.00" arrivalLane="1135405_0" arrivalPos="439.53" arrivalSpeed="30.57" duration="21.00" routeLength="434.43" waitingTime="0.00" waitingCount="0" stopTime="0.00" timeLoss="6.82" rerouteNo="0" devices="tripinfo_121 emissions_121" vType="EV" speedFactor="1.12" vaporized="">
        <emissions CO_abs="0.00" CO2_abs="0.00" HC_abs="0.00" PMx_abs="0.00" NOx_abs="0.00" fuel_abs="0.00" electricity_abs="319.51"/>
    </tripinfo>
    <tripinfo id="136" depart="32596.00" departLane="1051139_0" departPos="5.10" departSpeed="0.00" departDelay="0.16" arrival="32609.00" arrivalLane="1051139_0" arrivalPos="187.72" arrivalSpeed="25.10" duration="13.00" routeLength="182.62" waitingTime="0.00" waitingCount="0" stopTime="0.00" timeLoss="7.28" rerouteNo="0" devices="tripinfo_136 emissions_136" vType="ICE" speedFactor="0.97" vaporized="">
        <emissions CO_abs="2090.06" CO2_abs="124412.19" HC_abs="12.54" PMx_abs="2.70" NOx_abs="53.45" fuel_abs="39681.37" electricity_abs="0.00"/>
    </tripinfo>
    <tripinfo id="138" depart="32599.00" departLane="1051139_0" departPos="5.10" departSpeed="0.00" departDelay="0.28" arrival="32614.00" arrivalLane="1051139_0" arrivalPos="187.72" arrivalSpeed="25.80" duration="15.00" routeLength="182.62" waitingTime="0.00" waitingCount="0" stopTime="0.00" timeLoss="9.28" rerouteNo="0" devices="tripinfo_138 emissions_138" vType="EV" speedFactor="1.06" vaporized="">
        <emissions CO_abs="0.00" CO2_abs="0.00" HC_abs="0.00" PMx_abs="0.00" NOx_abs="0.00" fuel_abs="0.00" electricity_abs="197.91"/>
    </tripinfo>
    <tripinfo id="10" depart="32415.00" departLane="1302641_0" departPos="5.10" departSpeed="0.00" departDelay="0.60" arrival="32618.00" arrivalLane="1181543_0" arrivalPos="1837.57" arrivalSpeed="25.15" duration="203.00" routeLength="4687.39" waitingTime="0.00" waitingCount="0" stopTime="0.00" timeLoss="12.55" rerouteNo="0" devices="tripinfo_10 emissions_10" vType="ICE" speedFactor="1.01" vaporized="">
        <emissions CO_abs="10332.81" CO2_abs="971620.33" HC_abs="69.40" PMx_abs="18.74" NOx_abs="362.49" fuel_abs="309900.57" electricity_abs="0.00"/>
    </tripinfo>
    <tripinfo id="91" depart="32532.00" departLane="1181568_0" departPos="5.10" departSpeed="0.00" departDelay="0.96" arrival="32623.00" arrivalLane="1181568_0" arrivalPos="1818.38" arrivalSpeed="20.69" duration="91.00" routeLength="1813.28" waitingTime="0.00" waitingCount="0" stopTime="0.00" timeLoss="7.40" rerouteNo="0" devices="tripinfo_91 emissions_91" vType="EV" speedFactor="0.88" vaporized="">
        <emissions CO_abs="0.00" CO2_abs="0.00" HC_abs="0.00" PMx_abs="0.00" NOx_abs="0.00" fuel_abs="0.00" electricity_abs="341.31"/>
    </tripinfo>
    <tripinfo id="140" depart="32602.00" departLane="1135405_0" departPos="5.10" departSpeed="0.00" departDelay="0.40" arrival="32625.00" arrivalLane="1135405_0" arrivalPos="439.53" arrivalSpeed="26.51" duration="23.00" routeLength="434.43" waitingTime="0.00" waitingCount="0" stopTime="0.00" timeLoss="6.39" rerouteNo="0" devices="tripinfo_140 emissions_140" vType="ICE" speedFactor="0.96" vaporized="">
        <emissions CO_abs="2788.34" CO2_abs="179593.37" HC_abs="17.04" PMx_abs="3.86" NOx_abs="74.11" fuel_abs="57281.55" electricity_abs="0.00"/>
    </tripinfo>
    <tripinfo id="96" depart="32539.00" departLane="1181568_0" departPos="5.10" departSpeed="0.00" departDelay="0.76" arrival="32632.00" arrivalLane="1181568_0" arrivalPos="1818.38" arrivalSpeed="21.16" duration="93.00" routeLength="1813.28" waitingTime="0.00" waitingCount="0" stopTime="0.00" timeLoss="6.93" rerouteNo="0" devices="tripinfo_96 emissions_96" vType="EV" speedFactor="0.85" vaporized="">
        <emissions CO_abs="0.00" CO2_abs="0.00" HC_abs="0.00" PMx_abs="0.00" NOx_abs="0.00" fuel_abs="0.00" electricity_abs="340.46"/>
    </tripinfo>
    <tripinfo id="105" depart="32552.00" departLane="1181568_0" departPos="5.10" departSpeed="0.00" departDelay="0.80" arrival="32634.00" arrivalLane="1181568_0" arrivalPos="1818.38" arrivalSpeed="24.00" duration="82.00" routeLength="1813.28" waitingTime="0.00" waitingCount="0" stopTime="0.00" timeLoss="8.28" rerouteNo="0" devices="tripinfo_105 emissions_105" vType="ICE" speedFactor="1.00" vaporized="">
        <emissions CO_abs="4701.11" CO2_abs="405656.81" HC_abs="30.79" PMx_abs="7.95" NOx_abs="154.87" fuel_abs="129385.12" electricity_abs="0.00"/>
    </tripinfo>
    <tripinfo id="49" depart="32471.00" departLane="1051027_0" departPos="5.10" departSpeed="0.00" departDelay="0.44" arrival="32655.00" arrivalLane="1254015_0" arrivalPos="306.94" arrivalSpeed="20.86" duration="184.00" routeLength="3689.63" waitingTime="0.00" waitingCount="0" stopTime="0.00" timeLoss="14.25" rerouteNo="0" devices="tripinfo_49 emissions_49" vType="ICE" speedFactor="0.87" vaporized="">
        <emissions CO_abs="6516.34" CO2_abs="739499.42" HC_abs="45.64" PMx_abs="12.78" NOx_abs="273.08" fuel_abs="235865.12" electricity_abs="0.00"/>
    </tripinfo>
    <tripinfo id="161" depart="32632.00" departLane="1302641_0" departPos="5.10" departSpeed="0.00" departDelay="0.16" arrival="32656.00" arrivalLane="1302641_0" arrivalPos="440.91" arrivalSpeed="26.01" duration="24.00" routeLength="435.81" waitingTime="0.00" waitingCount="0" stopTime="0.00" timeLoss="6.98" rerouteNo="0" devices="tripinfo_161 emissions_161" vType="EV" speedFactor="0.97" vaporized="">
        <emissions CO_abs="0.00" CO2_abs="0.00" HC_abs="0.00" PMx_abs="0.00" NOx_abs="0.00" fuel_abs="0.00" electricity_abs="242.85"/>
    </tripinfo>
    <tripinfo id="169" depart="32644.00" departLane="1135405_0" departPos="5.10" departSpeed="0.00" departDelay="0.64" arrival="32666.00" arrivalLane="1135405_0" arrivalPos="439.53" arrivalSpeed="28.15" duration="22.00" routeLength="434.43" waitingTime="0.00" waitingCount="0" stopTime="0.00" timeLoss="6.74" rerouteNo="0" devices="tripinfo_169 emissions_169" vType="EV" speedFactor="1.04" vaporized="">
        <emissions CO_abs="0.00" CO2_abs="0.00" HC_abs="0.00" PMx_abs="0.00" NOx_abs="0.00" fuel_abs="0.00" electricity_abs="275.45"/>
    </tripinfo>
    <tripinfo id="42" depart="32461.00" departLane="1176007_0" departPos="5.10" departSpeed="0.00" departDelay="0.52" arrival="32667.00" arrivalLane="1214664_0" arrivalPos="176.94" arrivalSpeed="24.87" duration="206.00" routeLength="4251.05" waitingTime="0.00" waitingCount="0" stopTime="0.00" timeLoss="15.06" rerouteNo="0" devices="tripinfo_42 emissions_42" vType="EV" speedFactor="1.01" vaporized="">
        <emissions CO_abs="0.00" CO2_abs="0.00" HC_abs="0.00" PMx_abs="0.00" NOx_abs="0.00" fuel_abs="0.00" electricity_abs="753.63"/>
    </tripinfo>
    <tripinfo id="171" depart="32647.00" departLane="1135405_0" departPos="5.10" departSpeed="0.00" departDelay="0.76" arrival="32670.00" arrivalLane="1135405_0" arrivalPos="439.53" arrivalSpeed="28.04" duration="23.00" routeLength="434.43" waitingTime="0.00" waitingCount="0" stopTime="0.00" timeLoss="6.92" rerouteNo="0" devices="tripinfo_171 emissions_171" vType="ICE" speedFactor="1.02" vaporized="">
        <emissions CO_abs="3301.25" CO2_abs="198815.74" HC_abs="19.87" PMx_abs="4.43" NOx_abs="83.64" fuel_abs="63412.47" electricity_abs="0.00"/>
    </tripinfo>
    <tripinfo id="129" depart="32586.00" departLane="1181568_0" departPos="5.10" departSpeed="0.00" departDelay="0.24" arrival="32674.00" arrivalLane="1181568_0" arrivalPos="1818.38" arrivalSpeed="22.00" duration="88.00" routeLength="1813.28" waitingTime="0.00" waitingCount="0" stopTime="0.00" timeLoss="7.55" rerouteNo="0" devices="tripinfo_129 emissions_129" vType="ICE" speedFactor="0.91" vaporized="">
        <emissions CO_abs="3615.19" CO2_abs="384394.66" HC_abs="24.95" PMx_abs="6.85" NOx_abs="142.93" fuel_abs="122603.62" electricity_abs="0.00"/>
    </tripinfo>
    <tripinfo id="190" depart="32676.00" departLane="1051139_0" departPos="5.10" departSpeed="0.00" departDelay="2.40" arrival="32689.00" arrivalLane="1051139_0" arrivalPos="187.72" arrivalSpeed="27.25" duration="13.00" routeLength="182.62" waitingTime="0.00" waitingCount="0" stopTime="0.00" timeLoss="6.61" rerouteNo="0" devices="tripinfo_190 emissions_190" vType="EV" speedFactor="0.91" vaporized="">
        <emissions CO_abs="0.00" CO2_abs="0.00" HC_abs="0.00" PMx_abs="0.00" NOx_abs="0.00" fuel_abs="0.00" electricity_abs="219.10"/>
    </tripinfo>
    <tripinfo id="197" depart="32684.00" departLane="1302641_0" departPos="5.10" departSpeed="0.00" departDelay="0.32" arrival="32708.00" arrivalLane="1302641_0" arrivalPos="440.91" arrivalSpeed="26.57" duration="24.00" routeLength="435.81" waitingTime="0.00" waitingCount="0" stopTime="0.00" timeLoss="7.36" rerouteNo="0" devices="tripinfo_197 emissions_197" vType="ICE" speedFactor="0.97" vaporized="">
        <emissions CO_abs="2852.31" CO2_abs="182279.56" HC_abs="17.35" PMx_abs="3.86" NOx_abs="74.50" fuel_abs="58138.39" electricity_abs="0.00"/>
    </tripinfo>
    <tripinfo id="191" depart="32678.00" departLane="1176007_0" departPos="5.10" departSpeed="0.00" departDelay="2.96" arrival="32715.00" arrivalLane="1175978_0" arrivalPos="24.23" arrivalSpeed="24.25" duration="37.00" routeLength="792.49" waitingTime="0.00" waitingCount="0" stopTime="0.00" timeLoss="8.16" rerouteNo="0" devices="tripinfo_191 emissions_191" vType="ICE" speedFactor="1.12" vaporized="">
        <emissions CO_abs="3798.14" CO2_abs="255509.91" HC_abs="23.62" PMx_abs="5.48" NOx_abs="102.54" fuel_abs="81495.38" electricity_abs="0.00"/>
    </tripinfo>
    <tripinfo id="167" depart="32641.00" departLane="1181543_0" departPos="5.10" departSpeed="0.00" departDelay="0.52" arrival="32723.00" arrivalLane="1181543_0" arrivalPos="1837.57" arrivalSpeed="24.39" duration="82.00" routeLength="1832.47" waitingTime="0.00" waitingCount="0" stopTime="0.00" timeLoss="7.90" rerouteNo="0" devices="tripinfo_167 emissions_167" vType="EV" speedFactor="1.00" vaporized="">
        <emissions CO_abs="0.00" CO2_abs="0.00" HC_abs="0.00" PMx_abs="0.00" NOx_abs="0.00" fuel_abs="0.00" electricity_abs="424.14"/>
    </tripinfo>
    <tripinfo id="208" depart="32700.00" departLane="1135405_0" departPos="5.10" departSpeed="0.00" departDelay="0.48" arrival="32724.00" arrivalLane="1135405_0" arrivalPos="439.53" arrivalSpeed="26.42" duration="24.00" routeLength="434.43" waitingTime="0.00" waitingCount="0" stopTime="0.00" timeLoss="7.01" rerouteNo="0" devices="tripinfo_208 emissions_208" vType="ICE" speedFactor="0.96" vaporized="">
        <emissions CO_abs="2888.24" CO2_abs="183814.38" HC_abs="17.60" PMx_abs="3.94" NOx_abs="75.76" fuel_abs="58627.88" electricity_abs="0.00"/>
    </tripinfo>
    <tripinfo id="219" depart="32716.00" departLane="1051139_0" departPos="5.10" departSpeed="0.00" departDelay="0.64" arrival="32730.00" arrivalLane="1051139_0" arrivalPos="187.72" arrivalSpeed="27.01" duration="14.00" routeLength="182.62" waitingTime="0.00" waitingCount="0" stopTime="0.00" timeLoss="8.64" rerouteNo="0" devices="tripinfo_219 emissions_219" vType="EV" speedFactor="1.10" vaporized="">
        <emissions CO_abs="0.00" CO2_abs="0.00" HC_abs="0.00" PMx_abs="0.00" NOx_abs="0.00" fuel_abs="0.00" electricity_abs="215.35"/>
    </tripinfo>
    <tripinfo id="235" depart="32739.00" departLane="1051139_0" departPos="5.10" departSpeed="0.00" departDelay="0.60" arrival="32753.00" arrivalLane="1051139_0" arrivalPos="187.72" arrivalSpeed="27.30" duration="14.00" routeLength="182.62" waitingTime="0.00" waitingCount="0" stopTime="0.00" timeLoss="7.65" rerouteNo="0" devices="tripinfo_235 emissions_235" vType="EV" speedFactor="0.94" vaporized="">
        <emissions CO_abs="0.00" CO2_abs="0.00" HC_abs="0.00" PMx_abs="0.00" NOx_abs="0.00" fuel_abs="0.00" electricity_abs="219.77"/>
    </tripinfo>
    <tripinfo id="67" depart="32497.00" departLane="1181568_0" departPos="5.10" departSpeed="0.00" departDelay="0.52" arrival="32754.00" arrivalLane="1135405_0" arrivalPos="439.53" arrivalSpeed="26.56" duration="257.00" routeLength="5506.93" waitingTime="0.00" waitingCount="0" stopTime="0.00" timeLoss="19.17" rerouteNo="0" devices="tripinfo_67 emissions_67" vType="ICE" speedFactor="0.99" vaporized="">
        <emissions CO_abs="14181.66" CO2_abs="1222626.48" HC_abs="93.25" PMx_abs="23.85" NOx_abs="463.00" fuel_abs="389959.77" electricity_abs="0.00"/>
    </tripinfo>
    <tripinfo id="51" depart="32474.00" departLane="1181539_0" departPos="5.10" departSpeed="0.00" departDelay="0.56" arrival="32758.00" arrivalLane="1122617_0" arrivalPos="588.06" arrivalSpeed="22.50" duration="284.00" routeLength="5983.45" waitingTime="0.00" waitingCount="0" stopTime="0.00" timeLoss="17.53" rerouteNo="0" devices="tripinfo_51 emissions_51" vType="ICE" speedFactor="0.92" vaporized="">
        <emissions CO_abs="10532.79" CO2_abs="1185286.42" HC_abs="74.07" PMx_abs="20.99" NOx_abs="436.59" fuel_abs="378049.85" electricity_abs="0.00"/>
    </tripinfo>
    <tripinfo id="59" depart="32485.00" departLane="1051021_0" departPos="5.10" departSpeed="0.00" departDelay="0.04" arrival="32759.00" arrivalLane="1175979_0" arrivalPos="474.60" arrivalSpeed="25.65" duration="274.00" routeLength="7420.02" waitingTime="0.00" waitingCount="0" stopTime="0.00" timeLoss="19.23" rerouteNo="0" devices="tripinfo_59 emissions_59" vType="ICE" speedFactor="1.18" vaporized="">
        <emissions CO_abs="22207.12" CO2_abs="1605249.37" HC_abs="141.21" PMx_abs="35.11" NOx_abs="604.01" fuel_abs="511998.88" electricity_abs="0.00"/>
    </tripinfo>
    <tripinfo id="86" depart="32526.00" departLane="1181568_0" departPos="5.10" departSpeed="0.00" departDelay="2.16" arrival="32762.00" arrivalLane="1135405_0" arrivalPos="439.53" arrivalSpeed="29.01" duration="236.00" routeLength="5506.93" waitingTime="0.00" waitingCount="0" stopTime="0.00" timeLoss="18.59" rerouteNo="0" devices="tripinfo_86 emissions_86" vType="EV" speedFactor="1.09" vaporized="">
        <emissions CO_abs="0.00" CO2_abs="0.00" HC_abs="0.00" PMx_abs="0.00" NOx_abs="0.00" fuel_abs="0.00" electricity_abs="1127.37"/>
    </tripinfo>
    <tripinfo id="119" depart="32573.00" departLane="1302641_0" departPos="5.10" departSpeed="0.00" departDelay="1.64" arrival="32767.00" arrivalLane="1181543_0" arrivalPos="1837.57" arrivalSpeed="26.58" duration="194.00" routeLength="4687.39" waitingTime="0.00" waitingCount="0" stopTime="0.00" timeLoss="16.25" rerouteNo="0" devices="tripinfo_119 emissions_119" vType="EV" speedFactor="1.08" vaporized="">
        <emissions CO_abs="0.00" CO2_abs="0.00" HC_abs="0.00" PMx_abs="0.00" NOx_abs="0.00" fuel_abs="0.00" electricity_abs="933.11"/>
    </tripinfo>
    <tripinfo id="201" depart="32690.00" departLane="1181543_0" departPos="5.10" departSpeed="0.00" departDelay="0.56" arrival="32770.00" arrivalLane="1181543_0" arrivalPos="1837.57" arrivalSpeed="24.60" duration="80.00" routeLength="1832.47" waitingTime="0.00" waitingCount="0" stopTime="0.00" timeLoss="7.49" rerouteNo="0" devices="tripinfo_201 emissions_201" vType="EV" speedFactor="1.01" vaporized="">
        <emissions CO_abs="0.00" CO2_abs="0.00" HC_abs="0.00" PMx_abs="0.00" NOx_abs="0.00" fuel_abs="0.00" electricity_abs="428.69"/>
    </tripinfo>
    <tripinfo id="238" depart="32743.00" departLane="2020444_0" departPos="5.10" departSpeed="0.00" departDelay="0.28" arrival="32778.00" arrivalLane="1254016_0" arrivalPos="123.42" arrivalSpeed="24.65" duration="35.00" routeLength="713.57" waitingTime="0.00" waitingCount="0" stopTime="0.00" timeLoss="6.68" rerouteNo="0" devices="tripinfo_238 emissions_238" vType="ICE" speedFactor="1.02" vaporized="">
        <emissions CO_abs="2984.85" CO2_abs="214715.44" HC_abs="18.74" PMx_abs="4.42" NOx_abs="85.69" fuel_abs="68483.89" electricity_abs="0.00"/>
    </tripinfo>
    <tripinfo id="248" depart="32758.00" departLane="1302641_0" departPos="5.10" departSpeed="0.00" departDelay="0.88" arrival="32781.00" arrivalLane="1302641_0" arrivalPos="440.91" arrivalSpeed="27.88" duration="23.00" routeLength="435.81" waitingTime="0.00" waitingCount="0" stopTime="0.00" timeLoss="7.44" rerouteNo="0" devices="tripinfo_248 emissions_248" vType="EV" speedFactor="1.03" vaporized="">
        <emissions CO_abs="0.00" CO2_abs="0.00" HC_abs="0.00" PMx_abs="0.00" NOx_abs="0.00" fuel_abs="0.00" electricity_abs="270.84"/>
    </tripinfo>
    <tripinfo id="118" depart="32570.00" departLane="1302641_0" departPos="5.10" departSpeed="0.00" departDelay="0.08" arrival="32782.00" arrivalLane="1181543_0" arrivalPos="1837.57" arrivalSpeed="23.86" duration="212.00" routeLength="4687.39" waitingTime="0.00" waitingCount="0" stopTime="0.00" timeLoss="13.72" rerouteNo="0" devices="tripinfo_118 emissions_118" vType="ICE" speedFactor="0.97" vaporized="">
        <emissions CO_abs="9431.55" CO2_abs="940664.50" HC_abs="64.03" PMx_abs="17.46" NOx_abs="348.20" fuel_abs="300027.19" electricity_abs="0.00"/>
    </tripinfo>
    <tripinfo id="255" depart="32768.00" departLane="1051139_0" departPos="5.10" departSpeed="0.00" departDelay="0.80" arrival="32782.00" arrivalLane="1051139_0" arrivalPos="187.72" arrivalSpeed="27.42" duration="14.00" routeLength="182.62" waitingTime="0.00" waitingCount="0" stopTime="0.00" timeLoss="7.90" rerouteNo="0" devices="tripinfo_255 emissions_255" vType="ICE" speedFactor="1.01" vaporized="">
        <emissions CO_abs="2542.93" CO2_abs="145849.65" HC_abs="15.14" PMx_abs="3.25" NOx_abs="63.05" fuel_abs="46518.84" electricity_abs="0.00"/>
    </tripinfo>
    <tripinfo id="258" depart="32772.00" departLane="1051139_0" departPos="5.10" departSpeed="0.00" departDelay="0.48" arrival="32786.00" arrivalLane="1051139_0" arrivalPos="187.72" arrivalSpeed="28.03" duration="14.00" routeLength="182.62" waitingTime="0.00" waitingCount="0" stopTime="0.00" timeLoss="8.11" rerouteNo="0" devices="tripinfo_258 emissions_258" vType="EV" speedFactor="1.03" vaporized="">
        <emissions CO_abs="0.00" CO2_abs="0.00" HC_abs="0.00" PMx_abs="0.00" NOx_abs="0.00" fuel_abs="0.00" electricity_abs="231.77"/>
    </tripinfo>
    <tripinfo id="254" depart="32766.00" departLane="1398689_0" departPos="5.10" departSpeed="0.00" departDelay="0.24" arrival="32797.00" arrivalLane="1398689_0" arrivalPos="798.31" arrivalSpeed="36.45" duration="31.00" routeLength="793.21" waitingTime="0.00" waitingCount="0" stopTime="0.00" timeLoss="9.26" rerouteNo="0" devices="tripinfo_254 emissions_254" vType="ICE" speedFactor="1.12" vaporized="">
        <emissions CO_abs="7085.57" CO2_abs="357095.55" HC_abs="41.30" PMx_abs="8.82" NOx_abs="148.50" fuel_abs="113896.30" electricity_abs="0.00"/>
    </tripinfo>
    <tripinfo id="228" depart="32729.00" departLane="1181543_0" departPos="5.10" departSpeed="0.00" departDelay="0.68" arrival="32805.00" arrivalLane="1181543_1" arrivalPos="1837.57" arrivalSpeed="29.30" duration="76.00" routeLength="1832.47" waitingTime="0.00" waitingCount="0" stopTime="0.00" timeLoss="13.65" rerouteNo="0" devices="tripinfo_228 emissions_228" vType="ICE" speedFactor="1.18" vaporized="">
        <emissions CO_abs="6084.43" CO2_abs="460943.48" HC_abs="38.90" PMx_abs="9.67" NOx_abs="178.30" fuel_abs="147018.88" electricity_abs="0.00"/>
    </tripinfo>
    <tripinfo id="144" depart="32608.00" departLane="1302641_0" departPos="5.10" departSpeed="0.00" departDelay="0.64" arrival="32807.00" arrivalLane="1181543_0" arrivalPos="1837.57" arrivalSpeed="24.90" duration="199.00" routeLength="4687.39" waitingTime="0.00" waitingCount="0" stopTime="0.00" timeLoss="12.66" rerouteNo="0" devices="tripinfo_144 emissions_144" vType="ICE" speedFactor="1.03" vaporized="">
        <emissions CO_abs="11095.60" CO2_abs="966304.36" HC_abs="73.03" PMx_abs="19.17" NOx_abs="363.95" fuel_abs="308204.92" electricity_abs="0.00"/>
    </tripinfo>