<?xml version="1.0" encoding="UTF-8"?>

<!-- generated on 2025-12-23 15:38:20 by Eclipse SUMO sumo Version 1.12.0
<configuration xmlns:xsi="http://www.w3.org/2001/XMLSchema-instance" xsi:noNamespaceSchemaLocation="http://sumo.dlr.de/xsd/sumoConfiguration.xsd">

    <input>
        <net-file value="scenarios/../vci.net.xml"/>
        <route-files value="scenarios/routes_toll_2_5.xml"/>
    </input>

    <output>
        <tripinfo-output value="scenarios/tripinfo_toll_2_5.xml"/>
    </output>

    <time>
        <begin value="32400"/>
        <end value="39600"/>
        <step-length value="1"/>
    </time>

    <report>
        <xml-validation value="never"/>
        <xml-validation.routes value="never"/>
        <no-step-log value="true"/>
    </report>

    <gui_only>
        <tracker-interval value="1"/>
    </gui_only>

</configuration>
-->

<tripinfos xmlns:xsi="http://www.w3.org/2001/XMLSchema-instance" xsi:noNamespaceSchemaLocation="http://sumo.dlr.de/xsd/tripinfo_file.xsd">
    <tripinfo id="2" depart="32403.00" departLane="1135405_0" departPos="5.10" departSpeed="0.00" departDelay="0.12" arrival="32425.00" arrivalLane="1135405_0" arrivalPos="439.53" arrivalSpeed="28.56" duration="22.00" routeLength="434.43" waitingTime="0.00" waitingCount="0" stopTime="0.00" timeLoss="7.13" rerouteNo="0" devices="tripinfo_2 emissions_2" vType="EV" speedFactor="1.06" vaporized="">
        <emissions CO_abs="0" CO2_abs="0" HC_abs="0" PMx_abs="0" NOx_abs="0" fuel_abs="0" electricity_abs="295.123246"/>
    </tripinfo>
    <tripinfo id="6" depart="32409.00" departLane="1398689_0" departPos="5.10" departSpeed="0.00" departDelay="0.36" arrival="32443.00" arrivalLane="1398689_0" arrivalPos="798.31" arrivalSpeed="30.72" duration="34.00" routeLength="793.21" waitingTime="0.00" waitingCount="0" stopTime="0.00" timeLoss="7.87" rerouteNo="0" devices="tripinfo_6 emissions_6" vType="EV" speedFactor="0.94" vaporized="">
        <emissions CO_abs="0" CO2_abs="0" HC_abs="0" PMx_abs="0" NOx_abs="0" fuel_abs="0" electricity_abs="534.144597"/>
    </tripinfo>
    <tripinfo id="23" depart="32434.00" departLane="1302641_0" departPos="5.10" departSpeed="0.00" departDelay="0.88" arrival="32456.00" arrivalLane="1302641_0" arrivalPos="440.91" arrivalSpeed="29.82" duration="22.00" routeLength="435.81" waitingTime="0.00" waitingCount="0" stopTime="0.00" timeLoss="6.91" rerouteNo="0" devices="tripinfo_23 emissions_23" vType="EV" speedFactor="1.09" vaporized="">
        <emissions CO_abs="0" CO2_abs="0" HC_abs="0" PMx_abs="0" NOx_abs="0" fuel_abs="0" electricity_abs="326.836838"/>
    </tripinfo>
    <tripinfo id="32" depart="32447.00" departLane="1051139_0" departPos="5.10" departSpeed="0.00" departDelay="0.92" arrival="32460.00" arrivalLane="1051139_0" arrivalPos="187.72" arrivalSpeed="26.98" duration="13.00" routeLength="182.62" waitingTime="0.00" waitingCount="0" stopTime="0.00" timeLoss="6.28" rerouteNo="0" devices="tripinfo_32 emissions_32" vType="EV" speedFactor="0.88" vaporized="">
        <emissions CO_abs="0" CO2_abs="0" HC_abs="0" PMx_abs="0" NOx_abs="0" fuel_abs="0" electricity_abs="162.547781"/>
    </tripinfo>
    <tripinfo id="34" depart="32449.00" departLane="1135405_0" departPos="5.10" departSpeed="0.00" departDelay="0.04" arrival="32472.00" arrivalLane="1135405_0" arrivalPos="439.53" arrivalSpeed="25.21" duration="23.00" routeLength="434.43" waitingTime="0.00" waitingCount="0" stopTime="0.00" timeLoss="6.34" rerouteNo="0" devices="tripinfo_34 emissions_34" vType="EV" speedFactor="0.94" vaporized="">
        <emissions CO_abs="0" CO2_abs="0" HC_abs="0" PMx_abs="0" NOx_abs="0" fuel_abs="0" electricity_abs="241.024268"/>
    </tripinfo>
    <tripinfo id="41" depart="32460.00" departLane="1051139_0" departPos="5.10" departSpeed="0.00" departDelay="0.96" arrival="32473.00" arrivalLane="1051139_0" arrivalPos="187.72" arrivalSpeed="26.08" duration="13.00" routeLength="182.62" waitingTime="0.00" waitingCount="0" stopTime="0.00" timeLoss="7.33" rerouteNo="0" devices="tripinfo_41 emissions_41" vType="EV" speedFactor="1.02" vaporized="">
        <emissions CO_abs="0" CO2_abs="0" HC_abs="0" PMx_abs="0" NOx_abs="0" fuel_abs="0" electricity_abs="151.082932"/>
    </tripinfo>
    <tripinfo id="11" depart="32416.00" departLane="1181568_0" departPos="5.10" departSpeed="0.00" departDelay="0.16" arrival="32490.00" arrivalLane="1181568_0" arrivalPos="1818.38" arrivalSpeed="26.45" duration="74.00" routeLength="1813.28" waitingTime="0.00" waitingCount="0" stopTime="0.00" timeLoss="6.96" rerouteNo="0" devices="tripinfo_11 emissions_11" vType="EV" speedFactor="1.08" vaporized="">
        <emissions CO_abs="0" CO2_abs="0" HC_abs="0" PMx_abs="0" NOx_abs="0" fuel_abs="0" electricity_abs="845.291442"/>
    </tripinfo>
    <tripinfo id="54" depart="32478.00" departLane="1051139_0" departPos="5.10" departSpeed="0.00" departDelay="0.24" arrival="32491.00" arrivalLane="1051139_0" arrivalPos="187.72" arrivalSpeed="26.09" duration="13.00" routeLength="182.62" waitingTime="0.00" waitingCount="0" stopTime="0.00" timeLoss="7.14" rerouteNo="0" devices="tripinfo_54 emissions_54" vType="EV" speedFactor="0.95" vaporized="">
        <emissions CO_abs="0" CO2_abs="0" HC_abs="0" PMx_abs="0" NOx_abs="0" fuel_abs="0" electricity_abs="148.060393"/>
    </tripinfo>
    <tripinfo id="12" depart="32418.00" departLane="1181571_0" departPos="5.10" departSpeed="0.00" departDelay="0.72" arrival="32500.00" arrivalLane="1181539_0" arrivalPos="398.14" arrivalSpeed="28.36" duration="82.00" routeLength="2062.81" waitingTime="0.00" waitingCount="0" stopTime="0.00" timeLoss="7.45" rerouteNo="0" devices="tripinfo_12 emissions_12" vType="EV" speedFactor="1.03" vaporized="">
        <emissions CO_abs="0" CO2_abs="0" HC_abs="0" PMx_abs="0" NOx_abs="0" fuel_abs="0" electricity_abs="1009.139757"/>
    </tripinfo>
    <tripinfo id="68" depart="32499.00" departLane="1051139_0" departPos="5.10" departSpeed="0.00" departDelay="1.08" arrival="32513.00" arrivalLane="1051139_0" arrivalPos="187.72" arrivalSpeed="25.85" duration="14.00" routeLength="182.62" waitingTime="0.00" waitingCount="0" stopTime="0.00" timeLoss="8.22" rerouteNo="0" devices="tripinfo_68 emissions_68" vType="ICE" speedFactor="1.02" vaporized="">
        <emissions CO_abs="2244.970847" CO2_abs="132036.577467" HC_abs="13.434993" PMx_abs="2.868272" NOx_abs="56.734062" fuel_abs="56.756316" electricity_abs="0"/>
    </tripinfo>
    <tripinfo id="28" depart="32441.00" departLane="1181568_0" departPos="5.10" departSpeed="0.00" departDelay="0.68" arrival="32514.00" arrivalLane="1181568_0" arrivalPos="1818.38" arrivalSpeed="27.84" duration="73.00" routeLength="1813.28" waitingTime="0.00" waitingCount="0" stopTime="0.00" timeLoss="8.20" rerouteNo="0" devices="tripinfo_28 emissions_28" vType="ICE" speedFactor="1.12" vaporized="">
        <emissions CO_abs="6086.071632" CO2_abs="406062.021841" HC_abs="37.829850" PMx_abs="8.983098" NOx_abs="163.550084" fuel_abs="174.547270" electricity_abs="0"/>
    </tripinfo>
    <tripinfo id="71" depart="32505.00" departLane="1051139_0" departPos="5.10" departSpeed="0.00" departDelay="2.76" arrival="32519.00" arrivalLane="1051139_0" arrivalPos="187.72" arrivalSpeed="26.08" duration="14.00" routeLength="182.62" waitingTime="0.00" waitingCount="0" stopTime="0.00" timeLoss="9.17" rerouteNo="0" devices="tripinfo_71 emissions_71" vType="EV" speedFactor="1.18" vaporized="">
        <emissions CO_abs="0" CO2_abs="0" HC_abs="0" PMx_abs="0" NOx_abs="0" fuel_abs="0" electricity_abs="150.331490"/>
    </tripinfo>
    <tripinfo id="82" depart="32519.00" departLane="1051139_0" departPos="5.10" departSpeed="0.00" departDelay="0.92" arrival="32532.00" arrivalLane="1051139_0" arrivalPos="187.72" arrivalSpeed="27.09" duration="13.00" routeLength="182.62" waitingTime="0.00" waitingCount="0" stopTime="0.00" timeLoss="7.60" rerouteNo="0" devices="tripinfo_82 emissions_82" vType="ICE" speedFactor="1.09" vaporized="">
        <emissions CO_abs="2437.090680" CO2_abs="141258.050049" HC_abs="14.551674" PMx_abs="3.155856" NOx_abs="61.144681" fuel_abs="60.720102" electricity_abs="0"/>
    </tripinfo>
    <tripinfo id="88" depart="32527.00" departLane="1135405_0" departPos="5.10" departSpeed="0.00" departDelay="0.28" arrival="32550.00" arrivalLane="1135405_0" arrivalPos="439.53" arrivalSpeed="26.64" duration="23.00" routeLength="434.43" waitingTime="0.00" waitingCount="0" stopTime="0.00" timeLoss="6.56" rerouteNo="0" devices="tripinfo_88 emissions_88" vType="EV" speedFactor="1.00" vaporized="">
        <emissions CO_abs="0" CO2_abs="0" HC_abs="0" PMx_abs="0" NOx_abs="0" fuel_abs="0" electricity_abs="275.148478"/>
    </tripinfo>
    <tripinfo id="63" depart="32491.00" departLane="1181543_0" departPos="5.10" departSpeed="0.00" departDelay="0.28" arrival="32572.00" arrivalLane="1181543_0" arrivalPos="1837.57" arrivalSpeed="24.22" duration="81.00" routeLength="1832.47" waitingTime="0.00" waitingCount="0" stopTime="0.00" timeLoss="7.88" rerouteNo="0" devices="tripinfo_63 emissions_63" vType="ICE" speedFactor="1.01" vaporized="">
        <emissions CO_abs="4202.734222" CO2_abs="325759.400524" HC_abs="27.161967" PMx_abs="6.708863" NOx_abs="129.059544" fuel_abs="140.028957" electricity_abs="0"/>
    </tripinfo>
    <tripinfo id="106" depart="32553.00" departLane="1302641_0" departPos="5.10" departSpeed="0.00" departDelay="0.36" arrival="32578.00" arrivalLane="1302641_0" arrivalPos="440.91" arrivalSpeed="24.07" duration="25.00" routeLength="435.81" waitingTime="0.00" waitingCount="0" stopTime="0.00" timeLoss="6.67" rerouteNo="0" devices="tripinfo_106 emissions_106" vType="EV" speedFactor="0.90" vaporized="">
        <emissions CO_abs="0" CO2_abs="0" HC_abs="0" PMx_abs="0" NOx_abs="0" fuel_abs="0" electricity_abs="228.558778"/>
    </tripinfo>
    <tripinfo id="121" depart="32575.00" departLane="1135405_0" departPos="5.10" departSpeed="0.00" departDelay="0.76" arrival="32596.00" arrivalLane="1135405_0" arrivalPos="439.53" arrivalSpeed="30.57" duration="21.00" routeLength="434.43" waitingTime="0.00" waitingCount="0" stopTime="0.00" timeLoss="6.82" rerouteNo="0" devices="tripinfo_121 emissions_121" vType="ICE" speedFactor="1.12" vaporized="">
        <emissions CO_abs="3769.981195" CO2_abs="216739.110141" HC_abs="22.537930" PMx_abs="4.997168" NOx_abs="92.030114" fuel_abs="93.165892" electricity_abs="0"/>
    </tripinfo>
    <tripinfo id="136" depart="32596.00" departLane="1051139_0" departPos="5.10" departSpeed="0.00" departDelay="0.16" arrival="32609.00" arrivalLane="1051139_0" arrivalPos="187.72" arrivalSpeed="25.10" duration="13.00" routeLength="182.62" waitingTime="0.00" waitingCount="0" stopTime="0.00" timeLoss="7.28" rerouteNo="0" devices="tripinfo_136 emissions_136" vType="EV" speedFactor="0.97" vaporized="">
        <emissions CO_abs="0" CO2_abs="0" HC_abs="0" PMx_abs="0" NOx_abs="0" fuel_abs="0" electricity_abs="139.088375"/>
    </tripinfo>
    <tripinfo id="138" depart="32599.00" departLane="1051139_0" departPos="5.10" departSpeed="0.00" departDelay="0.28" arrival="32614.00" arrivalLane="1051139_0" arrivalPos="187.72" arrivalSpeed="25.80" duration="15.00" routeLength="182.62" waitingTime="0.00" waitingCount="0" stopTime="0.00" timeLoss="9.28" rerouteNo="0" devices="tripinfo_138 emissions_138" vType="EV" speedFactor="1.06" vaporized="">
        <emissions CO_abs="0" CO2_abs="0" HC_abs="0" PMx_abs="0" NOx_abs="0" fuel_abs="0" electricity_abs="148.135411"/>
    </tripinfo>
    <tripinfo id="10" depart="32415.00" departLane="1302641_0" departPos="5.10" departSpeed="0.00" departDelay="0.60" arrival="32618.00" arrivalLane="1181543_0" arrivalPos="1837.57" arrivalSpeed="25.15" duration="203.00" routeLength="4687.39" waitingTime="0.00" waitingCount="0" stopTime="0.00" timeLoss="12.55" rerouteNo="0" devices="tripinfo_10 emissions_10" vType="ICE" speedFactor="1.01" vaporized="">
        <emissions CO_abs="10224.092909" CO2_abs="840997.559843" HC_abs="67.250252" PMx_abs="17.301349" NOx_abs="330.544013" fuel_abs="361.505843" electricity_abs="0"/>
    </tripinfo>
    <tripinfo id="91" depart="32532.00" departLane="1181568_0" departPos="5.10" departSpeed="0.00" departDelay="0.96" arrival="32623.00" arrivalLane="1181568_0" arrivalPos="1818.38" arrivalSpeed="20.69" duration="91.00" routeLength="1813.28" waitingTime="0.00" waitingCount="0" stopTime="0.00" timeLoss="7.40" rerouteNo="0" devices="tripinfo_91 emissions_91" vType="ICE" speedFactor="0.88" vaporized="">
        <emissions CO_abs="3435.283397" CO2_abs="321665.179782" HC_abs="23.413443" PMx_abs="6.101204" NOx_abs="125.751869" fuel_abs="138.269042" electricity_abs="0"/>
    </tripinfo>
    <tripinfo id="140" depart="32602.00" departLane="1135405_0" departPos="5.10" departSpeed="0.00" departDelay="0.40" arrival="32625.00" arrivalLane="1135405_0" arrivalPos="439.53" arrivalSpeed="26.51" duration="23.00" routeLength="434.43" waitingTime="0.00" waitingCount="0" stopTime="0.00" timeLoss="6.39" rerouteNo="0" devices="tripinfo_140 emissions_140" vType="EV" speedFactor="0.96" vaporized="">
        <emissions CO_abs="0" CO2_abs="0" HC_abs="0" PMx_abs="0" NOx_abs="0" fuel_abs="0" electricity_abs="257.298141"/>
    </tripinfo>
    <tripinfo id="96" depart="32539.00" departLane="1181568_0" departPos="5.10" departSpeed="0.00" departDelay="0.76" arrival="32632.00" arrivalLane="1181568_0" arrivalPos="1818.38" arrivalSpeed="21.16" duration="93.00" routeLength="1813.28" waitingTime="0.00" waitingCount="0" stopTime="0.00" timeLoss="6.93" rerouteNo="0" devices="tripinfo_96 emissions_96" vType="ICE" speedFactor="0.85" vaporized="">
        <emissions CO_abs="3355.510959" CO2_abs="335564.745881" HC_abs="23.351628" PMx_abs="6.194746" NOx_abs="129.986967" fuel_abs="144.243898" electricity_abs="0"/>
    </tripinfo>
    <tripinfo id="105" depart="32552.00" departLane="1181568_0" departPos="5.10" departSpeed="0.00" departDelay="0.80" arrival="32634.00" arrivalLane="1181568_0" arrivalPos="1818.38" arrivalSpeed="24.00" duration="82.00" routeLength="1813.28" waitingTime="0.00" waitingCount="0" stopTime="0.00" timeLoss="8.28" rerouteNo="0" devices="tripinfo_105 emissions_105" vType="ICE" speedFactor="1.00" vaporized="">
        <emissions CO_abs="4679.219955" CO2_abs="359049.006585" HC_abs="30.148266" PMx_abs="7.433918" NOx_abs="143.139918" fuel_abs="154.338538" electricity_abs="0"/>
    </tripinfo>
    <tripinfo id="49" depart="32471.00" departLane="1051027_0" departPos="5.10" departSpeed="0.00" departDelay="0.44" arrival="32655.00" arrivalLane="1254015_0" arrivalPos="306.94" arrivalSpeed="20.86" duration="184.00" routeLength="3689.63" waitingTime="0.00" waitingCount="0" stopTime="0.00" timeLoss="14.25" rerouteNo="0" devices="tripinfo_49 emissions_49" vType="EV" speedFactor="0.87" vaporized="">
        <emissions CO_abs="0" CO2_abs="0" HC_abs="0" PMx_abs="0" NOx_abs="0" fuel_abs="0" electricity_abs="1098.018846"/>
    </tripinfo>
    <tripinfo id="161" depart="32632.00" departLane="1302641_0" departPos="5.10" departSpeed="0.00" departDelay="0.16" arrival="32656.00" arrivalLane="1302641_0" arrivalPos="440.91" arrivalSpeed="26.01" duration="24.00" routeLength="435.81" waitingTime="0.00" waitingCount="0" stopTime="0.00" timeLoss="6.98" rerouteNo="0" devices="tripinfo_161 emissions_161" vType="EV" speedFactor="0.97" vaporized="">
        <emissions CO_abs="0" CO2_abs="0" HC_abs="0" PMx_abs="0" NOx_abs="0" fuel_abs="0" electricity_abs="258.309832"/>
    </tripinfo>
    <tripinfo id="169" depart="32644.00" departLane="1135405_0" departPos="5.10" departSpeed="0.00" departDelay="0.64" arrival="32666.00" arrivalLane="1135405_0" arrivalPos="439.53" arrivalSpeed="28.15" duration="22.00" routeLength="434.43" waitingTime="0.00" waitingCount="0" stopTime="0.00" timeLoss="6.74" rerouteNo="0" devices="tripinfo_169 emissions_169" vType="ICE" speedFactor="1.04" vaporized="">
        <emissions CO_abs="2989.519945" CO2_abs="181355.522788" HC_abs="18.076402" PMx_abs="4.035140" NOx_abs="76.566960" fuel_abs="77.956191" electricity_abs="0"/>
    </tripinfo>
    <tripinfo id="42" depart="32461.00" departLane="1176007_0" departPos="5.10" departSpeed="0.00" departDelay="0.52" arrival="32667.00" arrivalLane="1214664_0" arrivalPos="176.94" arrivalSpeed="24.87" duration="206.00" routeLength="4251.05" waitingTime="0.00" waitingCount="0" stopTime="0.00" timeLoss="15.05" rerouteNo="0" devices="tripinfo_42 emissions_42" vType="ICE" speedFactor="1.01" vaporized="">
        <emissions CO_abs="9570.001511" CO2_abs="795476.670389" HC_abs="63.003539" PMx_abs="15.954350" NOx_abs="314.126873" fuel_abs="341.938633" electricity_abs="0"/>
    </tripinfo>
    <tripinfo id="171" depart="32647.00" departLane="1135405_0" departPos="5.10" departSpeed="0.00" departDelay="0.76" arrival="32670.00" arrivalLane="1135405_0" arrivalPos="439.53" arrivalSpeed="28.04" duration="23.00" routeLength="434.43" waitingTime="0.00" waitingCount="0" stopTime="0.00" timeLoss="6.92" rerouteNo="0" devices="tripinfo_171 emissions_171" vType="EV" speedFactor="1.02" vaporized="">
        <emissions CO_abs="0" CO2_abs="0" HC_abs="0" PMx_abs="0" NOx_abs="0" fuel_abs="0" electricity_abs="289.743581"/>
    </tripinfo>
    <tripinfo id="129" depart="32586.00" departLane="1181568_0" departPos="5.10" departSpeed="0.00" departDelay="0.24" arrival="32674.00" arrivalLane="1181568_0" arrivalPos="1818.38" arrivalSpeed="22.00" duration="88.00" routeLength="1813.28" waitingTime="0.00" waitingCount="0" stopTime="0.00" timeLoss="7.55" rerouteNo="0" devices="tripinfo_129 emissions_129" vType="EV" speedFactor="0.91" vaporized="">
        <emissions CO_abs="0" CO2_abs="0" HC_abs="0" PMx_abs="0" NOx_abs="0" fuel_abs="0" electricity_abs="607.909540"/>
    </tripinfo>
    <tripinfo id="190" depart="32676.00" departLane="1051139_0" departPos="5.10" departSpeed="0.00" departDelay="2.40" arrival="32689.00" arrivalLane="1051139_0" arrivalPos="187.72" arrivalSpeed="27.25" duration="13.00" routeLength="182.62" waitingTime="0.00" waitingCount="0" stopTime="0.00" timeLoss="6.61" rerouteNo="0" devices="tripinfo_190 emissions_190" vType="ICE" speedFactor="0.91" vaporized="">
        <emissions CO_abs="2494.430568" CO2_abs="142383.327631" HC_abs="14.840918" PMx_abs="3.194152" NOx_abs="61.766386" fuel_abs="61.203813" electricity_abs="0"/>
    </tripinfo>
    <tripinfo id="197" depart="32684.00" departLane="1302641_0" departPos="5.10" departSpeed="0.00" departDelay="0.32" arrival="32707.00" arrivalLane="1302641_0" arrivalPos="440.91" arrivalSpeed="26.73" duration="23.00" routeLength="435.81" waitingTime="0.00" waitingCount="0" stopTime="0.00" timeLoss="6.45" rerouteNo="0" devices="tripinfo_197 emissions_197" vType="ICE" speedFactor="0.97" vaporized="">
        <emissions CO_abs="2848.755762" CO2_abs="177771.173451" HC_abs="17.336423" PMx_abs="3.883203" NOx_abs="74.544974" fuel_abs="76.415493" electricity_abs="0"/>
    </tripinfo>
    <tripinfo id="191" depart="32678.00" departLane="1176007_0" departPos="5.10" departSpeed="0.00" departDelay="2.96" arrival="32714.00" arrivalLane="1175978_0" arrivalPos="24.23" arrivalSpeed="24.49" duration="36.00" routeLength="792.49" waitingTime="0.00" waitingCount="0" stopTime="0.00" timeLoss="7.11" rerouteNo="0" devices="tripinfo_191 emissions_191" vType="EV" speedFactor="1.12" vaporized="">
        <emissions CO_abs="0" CO2_abs="0" HC_abs="0" PMx_abs="0" NOx_abs="0" fuel_abs="0" electricity_abs="412.278825"/>
    </tripinfo>
    <tripinfo id="167" depart="32641.00" departLane="1181543_0" departPos="5.10" departSpeed="0.00" departDelay="0.52" arrival="32722.00" arrivalLane="1181543_0" arrivalPos="1837.57" arrivalSpeed="24.38" duration="81.00" routeLength="1832.47" waitingTime="0.00" waitingCount="0" stopTime="0.00" timeLoss="7.81" rerouteNo="0" devices="tripinfo_167 emissions_167" vType="EV" speedFactor="1.00" vaporized="">
        <emissions CO_abs="0" CO2_abs="0" HC_abs="0" PMx_abs="0" NOx_abs="0" fuel_abs="0" electricity_abs="730.919990"/>
    </tripinfo>
    <tripinfo id="208" depart="32700.00" departLane="1135405_0" departPos="5.10" departSpeed="0.00" departDelay="0.48" arrival="32724.00" arrivalLane="1135405_0" arrivalPos="439.53" arrivalSpeed="26.42" duration="24.00" routeLength="434.43" waitingTime="0.00" waitingCount="0" stopTime="0.00" timeLoss="7.69" rerouteNo="0" devices="tripinfo_208 emissions_208" vType="ICE" speedFactor="0.96" vaporized="">
        <emissions CO_abs="2867.116843" CO2_abs="171736.199361" HC_abs="17.256176" PMx_abs="3.737359" NOx_abs="72.549870" fuel_abs="73.821395" electricity_abs="0"/>
    </tripinfo>
    <tripinfo id="219" depart="32716.00" departLane="1051139_0" departPos="5.10" departSpeed="0.00" departDelay="0.64" arrival="32730.00" arrivalLane="1051139_0" arrivalPos="187.72" arrivalSpeed="27.01" duration="14.00" routeLength="182.62" waitingTime="0.00" waitingCount="0" stopTime="0.00" timeLoss="8.64" rerouteNo="0" devices="tripinfo_219 emissions_219" vType="EV" speedFactor="1.10" vaporized="">
        <emissions CO_abs="0" CO2_abs="0" HC_abs="0" PMx_abs="0" NOx_abs="0" fuel_abs="0" electricity_abs="160.620904"/>
    </tripinfo>
    <tripinfo id="235" depart="32739.00" departLane="1051139_0" departPos="5.10" departSpeed="0.00" departDelay="0.60" arrival="32753.00" arrivalLane="1051139_0" arrivalPos="187.72" arrivalSpeed="27.30" duration="14.00" routeLength="182.62" waitingTime="0.00" waitingCount="0" stopTime="0.00" timeLoss="7.65" rerouteNo="0" devices="tripinfo_235 emissions_235" vType="EV" speedFactor="0.94" vaporized="">
        <emissions CO_abs="0" CO2_abs="0" HC_abs="0" PMx_abs="0" NOx_abs="0" fuel_abs="0" electricity_abs="163.482109"/>
    </tripinfo>
    <tripinfo id="67" depart="32497.00" departLane="1181568_0" departPos="5.10" departSpeed="0.00" departDelay="0.52" arrival="32754.00" arrivalLane="1135405_0" arrivalPos="439.53" arrivalSpeed="26.45" duration="257.00" routeLength="5506.93" waitingTime="0.00" waitingCount="0" stopTime="0.00" timeLoss="19.13" rerouteNo="0" devices="tripinfo_67 emissions_67" vType="EV" speedFactor="0.99" vaporized="">
        <emissions CO_abs="0" CO2_abs="0" HC_abs="0" PMx_abs="0" NOx_abs="0" fuel_abs="0" electricity_abs="2073.894721"/>
    </tripinfo>
    <tripinfo id="51" depart="32474.00" departLane="1181539_0" departPos="5.10" departSpeed="0.00" departDelay="0.56" arrival="32758.00" arrivalLane="1122617_0" arrivalPos="588.06" arrivalSpeed="22.93" duration="284.00" routeLength="5983.45" waitingTime="0.00" waitingCount="0" stopTime="0.00" timeLoss="17.73" rerouteNo="0" devices="tripinfo_51 emissions_51" vType="ICE" speedFactor="0.92" vaporized="">
        <emissions CO_abs="10428.242479" CO2_abs="1010039.575147" HC_abs="72.132273" PMx_abs="19.447503" NOx_abs="392.329084" fuel_abs="434.169214" electricity_abs="0"/>
    </tripinfo>
    <tripinfo id="59" depart="32485.00" departLane="1051021_0" departPos="5.10" departSpeed="0.00" departDelay="0.04" arrival="32759.00" arrivalLane="1175979_0" arrivalPos="474.60" arrivalSpeed="24.92" duration="274.00" routeLength="7420.02" waitingTime="0.00" waitingCount="0" stopTime="0.00" timeLoss="19.36" rerouteNo="0" devices="tripinfo_59 emissions_59" vType="EV" speedFactor="1.18" vaporized="">
        <emissions CO_abs="0" CO2_abs="0" HC_abs="0" PMx_abs="0" NOx_abs="0" fuel_abs="0" electricity_abs="3641.472919"/>
    </tripinfo>
    <tripinfo id="86" depart="32526.00" departLane="1181568_0" departPos="5.10" departSpeed="0.00" departDelay="2.16" arrival="32762.00" arrivalLane="1135405_0" arrivalPos="439.53" arrivalSpeed="30.22" duration="236.00" routeLength="5506.93" waitingTime="0.00" waitingCount="0" stopTime="0.00" timeLoss="18.45" rerouteNo="0" devices="tripinfo_86 emissions_86" vType="ICE" speedFactor="1.09" vaporized="">
        <emissions CO_abs="15848.672022" CO2_abs="1093898.219242" HC_abs="99.332031" PMx_abs="23.823318" NOx_abs="438.159446" fuel_abs="470.216317" electricity_abs="0"/>
    </tripinfo>
    <tripinfo id="119" depart="32573.00" departLane="1302641_0" departPos="5.10" departSpeed="0.00" departDelay="1.64" arrival="32767.00" arrivalLane="1181543_0" arrivalPos="1837.57" arrivalSpeed="26.81" duration="194.00" routeLength="4687.39" waitingTime="0.00" waitingCount="0" stopTime="0.00" timeLoss="16.39" rerouteNo="0" devices="tripinfo_119 emissions_119" vType="EV" speedFactor="1.08" vaporized="">
        <emissions CO_abs="0" CO2_abs="0" HC_abs="0" PMx_abs="0" NOx_abs="0" fuel_abs="0" electricity_abs="1979.198416"/>
    </tripinfo>
    <tripinfo id="201" depart="32690.00" departLane="1181543_0" departPos="5.10" departSpeed="0.00" departDelay="0.56" arrival="32770.00" arrivalLane="1181543_0" arrivalPos="1837.57" arrivalSpeed="25.13" duration="80.00" routeLength="1832.47" waitingTime="0.00" waitingCount="0" stopTime="0.00" timeLoss="7.10" rerouteNo="0" devices="tripinfo_201 emissions_201" vType="EV" speedFactor="1.01" vaporized="">
        <emissions CO_abs="0" CO2_abs="0" HC_abs="0" PMx_abs="0" NOx_abs="0" fuel_abs="0" electricity_abs="760.719509"/>
    </tripinfo>
    <tripinfo id="238" depart="32743.00" departLane="2020444_0" departPos="5.10" departSpeed="0.00" departDelay="0.28" arrival="32779.00" arrivalLane="1254016_0" arrivalPos="123.42" arrivalSpeed="24.58" duration="36.00" routeLength="713.57" waitingTime="0.00" waitingCount="0" stopTime="0.00" timeLoss="7.23" rerouteNo="0" devices="tripinfo_238 emissions_238" vType="EV" speedFactor="1.02" vaporized="">
        <emissions CO_abs="0" CO2_abs="0" HC_abs="0" PMx_abs="0" NOx_abs="0" fuel_abs="0" electricity_abs="345.006659"/>
    </tripinfo>
    <tripinfo id="118" depart="32570.00" departLane="1302641_0" departPos="5.10" departSpeed="0.00" departDelay="0.08" arrival="32782.00" arrivalLane="1181543_0" arrivalPos="1837.57" arrivalSpeed="23.55" duration="212.00" routeLength="4687.39" waitingTime="0.00" waitingCount="0" stopTime="0.00" timeLoss="13.40" rerouteNo="0" devices="tripinfo_118 emissions_118" vType="ICE" speedFactor="0.97" vaporized="">
        <emissions CO_abs="9411.706754" CO2_abs="832012.757627" HC_abs="63.311923" PMx_abs="16.627391" NOx_abs="324.392104" fuel_abs="357.643795" electricity_abs="0"/>
    </tripinfo>
    <tripinfo id="248" depart="32758.00" departLane="1302641_0" departPos="5.10" departSpeed="0.00" departDelay="0.88" arrival="32782.00" arrivalLane="1302641_0" arrivalPos="440.91" arrivalSpeed="27.48" duration="24.00" routeLength="435.81" waitingTime="0.00" waitingCount="0" stopTime="0.00" timeLoss="7.94" rerouteNo="0" devices="tripinfo_248 emissions_248" vType="EV" speedFactor="1.03" vaporized="">
        <emissions CO_abs="0" CO2_abs="0" HC_abs="0" PMx_abs="0" NOx_abs="0" fuel_abs="0" electricity_abs="282.174037"/>
    </tripinfo>
    <tripinfo id="255" depart="32768.00" departLane="1051139_0" departPos="5.10" departSpeed="0.00" departDelay="0.80" arrival="32782.00" arrivalLane="1051139_0" arrivalPos="187.72" arrivalSpeed="27.42" duration="14.00" routeLength="182.62" waitingTime="0.00" waitingCount="0" stopTime="0.00" timeLoss="7.90" rerouteNo="0" devices="tripinfo_255 emissions_255" vType="EV" speedFactor="1.01" vaporized="">
        <emissions CO_abs="0" CO2_abs="0" HC_abs="0" PMx_abs="0" NOx_abs="0" fuel_abs="0" electricity_abs="168.093747"/>
    </tripinfo>
    <tripinfo id="258" depart="32772.00" departLane="1051139_0" departPos="5.10" departSpeed="0.00" departDelay="0.48" arrival="32786.00" arrivalLane="1051139_0" arrivalPos="187.72" arrivalSpeed="28.03" duration="14.00" routeLength="182.62" waitingTime="0.00" waitingCount="0" stopTime="0.00" timeLoss="8.11" rerouteNo="0" devices="tripinfo_258 emissions_258" vType="ICE" speedFactor="1.03" vaporized="">
        <emissions CO_abs="2690.231315" CO2_abs="150840.073920" HC_abs="15.938914" PMx_abs="3.389629" NOx_abs="65.477455" fuel_abs="64.838997" electricity_abs="0"/>
    </tripinfo>
    <tripinfo id="254" depart="32766.00" departLane="1398689_0" departPos="5.10" departSpeed="0.00" departDelay="0.24" arrival="32798.00" arrivalLane="1398689_0" arrivalPos="798.31" arrivalSpeed="36.82" duration="32.00" routeLength="793.21" waitingTime="0.00" waitingCount="0" stopTime="0.00" timeLoss="9.87" rerouteNo="0" devices="tripinfo_254 emissions_254" vType="EV" speedFactor="1.12" vaporized="">
        <emissions CO_abs="0" CO2_abs="0" HC_abs="0" PMx_abs="0" NOx_abs="0" fuel_abs="0" electricity_abs="710.736026"/>
    </tripinfo>
    <tripinfo id="228" depart="32729.00" departLane="1181543_0" departPos="5.10" departSpeed="0.00" departDelay="0.68" arrival="32805.00" arrivalLane="1181543_1" arrivalPos="1837.57" arrivalSpeed="29.22" duration="76.00" routeLength="1832.47" waitingTime="0.00" waitingCount="0" stopTime="0.00" timeLoss="13.42" rerouteNo="0" devices="tripinfo_228 emissions_228" vType="EV" speedFactor="1.18" vaporized="">
        <emissions CO_abs="0" CO2_abs="0" HC_abs="0" PMx_abs="0" NOx_abs="0" fuel_abs="0" electricity_abs="878.347240"/>
    </tripinfo>
    <tripinfo id="144" depart="32608.00" departLane="1302641_0" departPos="5.10" departSpeed="0.00" departDelay="0.64" arrival="32807.00" arrivalLane="1181543_0" arrivalPos="1837.57" arrivalSpeed="25.44" duration="199.00" routeLength="4687.39" waitingTime="0.00" waitingCount="0" stopTime="0.00" timeLoss="12.77" rerouteNo="0" devices="tripinfo_144 emissions_144" vType="ICE" speedFactor="1.03" vaporized="">
        <emissions CO_abs="10824.233147" CO2_abs="840263.405070" HC_abs="70.028441" PMx_abs="17.706293" NOx_abs="333.332203" fuel_abs="361.190107" electricity_abs="0"/>
    </tripinfo>
    <tripinfo id="130" depart="32588.00" departLane="1302641_0" departPos="5.10" departSpeed="0.00" departDelay="0.80" arrival="32811.00" arrivalLane="1181543_0" arrivalPos="1837.57" arrivalSpeed="22.80" duration="223.00" routeLength="4687.39" waitingTime="0.00" waitingCount="0" stopTime="0.00" timeLoss="13.02" rerouteNo="0" devices="tripinfo_130 emissions_130" vType="EV" speedFactor="0.91" vaporized="">
        <emissions CO_abs="0" CO2_abs="0" HC_abs="0" PMx_abs="0" NOx_abs="0" fuel_abs="0" electricity_abs="1487.457331"/>